                         Program Version 5.0.1  -   Release   -
|  1> ! B3LYP Def2-SVP Opt
|  2>
|  3> * xyz 0 1
|  4> H        1.1610300000      0.0660680000      1.0238850000
|  5> C        0.6578960000     -0.0044590000      0.0639790000
|  6> H        1.3351900000     -0.0830130000     -0.7814260000
|  7> C       -0.6578350000      0.0044580000     -0.0638470000
|  8> H       -1.3354850000      0.0830070000      0.7812720000
|  9> H       -1.1607960000     -0.0660610000     -1.0238630000
| 10> **                         ****END OF INPUT****
 Total Charge           Charge          ....    0
 Multiplicity           Mult            ....    1
 Number of Electrons    NEL             ....   16
FINAL SINGLE POINT ENERGY       -78.472829765453
FINAL SINGLE POINT ENERGY       -78.473369057796
FINAL SINGLE POINT ENERGY       -78.473485783856
FINAL SINGLE POINT ENERGY       -78.473532418991
FINAL SINGLE POINT ENERGY       -78.473534431026
                    ***********************HURRAY********************

CARTESIAN COORDINATES (ANGSTROEM)
---------------------------------
  H      1.147635    0.067879    1.044019
  C      0.663493   -0.004434    0.064489
  H      1.326096   -0.084701   -0.803659
  C     -0.663493    0.004434   -0.064484
  H     -1.326108    0.084701    0.803654
  H     -1.147623   -0.067879   -1.044019

 Multiplicity           Mult            ....    1
 Number of Electrons    NEL             ....   16
 Basis Dimension        Dim             ....   48

ORBITAL ENERGIES
----------------

  NO   OCC          E(Eh)            E(eV)
   0   2.0000     -10.187064      -277.2041
   1   2.0000     -10.186375      -277.1854
   2   2.0000      -0.747886       -20.3510
   3   2.0000      -0.568725       -15.4758
   4   2.0000      -0.463262       -12.6060
   5   2.0000      -0.417990       -11.3741
   6   2.0000      -0.351483        -9.5643
   7   2.0000      -0.272540        -7.4162
   8   0.0000       0.008707         0.2369
   9   0.0000       0.085369         2.3230
  10   0.0000       0.104727         2.8498
  11   0.0000       0.116509         3.1704
  12   0.0000       0.187304         5.0968

MULLIKEN ATOMIC CHARGES
-----------------------
   0 H :    0.028057
   1 C :   -0.056353
   2 H :    0.028290
   3 C :   -0.056338
   4 H :    0.028289
   5 H :    0.028056
Sum of atomic charges:   -0.0000000

LOEWDIN ATOMIC CHARGES
----------------------
   0 H :    0.024229
   1 C :   -0.048507
   2 H :    0.024273
   3 C :   -0.048497
   4 H :    0.024272
   5 H :    0.024229

  Mayer bond orders larger than 0.100000
B(  0-H ,  1-C ) :   0.9623 B(  1-C ,  2-H ) :   0.9623 B(  1-C ,  3-C ) :   2.0819
B(  3-C ,  4-H ) :   0.9623 B(  3-C ,  5-H ) :   0.9623

FINAL SINGLE POINT ENERGY       -78.473534496971

DIPOLE MOMENT
-------------
                                X             Y             Z
Electronic contribution:     -0.00001       0.00000       0.00001
Nuclear contribution   :      0.00000      -0.00000      -0.00001
                        -----------------------------------------
Total Dipole Moment    :     -0.00001       0.00000      -0.00000
                        -----------------------------------------
Magnitude (a.u.)       :      0.00001
Magnitude (Debye)      :      0.00003

Rotational constants in cm-1:     4.820893     0.997363     0.826395
Rotational constants in MHz : 144526.726771 29900.182549 24774.706794

                             ****ORCA TERMINATED NORMALLY****
TOTAL RUN TIME: 0 days 0 hours 0 minutes 20 seconds 724 msec
