                         Program Version 5.0.1  -   Release   -
|  1> ! B3LYP def2-SVP Freq Usesym
|  2>
|  3> * xyz 0 1
|  4> H        1.242719034      0.000000000      0.931267514
|  5> C        0.666634020      0.000000000      0.000000000
|  6> H        1.242719034      0.000000000     -0.931267514
|  7> C       -0.666634020      0.000000000      0.000000000
|  8> H       -1.242719034      0.000000000      0.931267514
|  9> H       -1.242719034      0.000000000     -0.931267514
| 10> *
| 11>
| 12>
| 13>                          ****END OF INPUT****

CARTESIAN COORDINATES (ANGSTROEM)
---------------------------------
  H      1.242719    0.000000    0.931268
  C      0.666634    0.000000    0.000000
  H      1.242719    0.000000   -0.931268
  C     -0.666634    0.000000    0.000000
  H     -1.242719    0.000000    0.931268
  H     -1.242719    0.000000   -0.931268

 Total Charge           Charge          ....    0
 Multiplicity           Mult            ....    1
 Number of Electrons    NEL             ....   16
 Basis Dimension        Dim             ....   48

ORBITAL ENERGIES
----------------

  NO   OCC          E(Eh)            E(eV)    Irrep
   0   2.0000     -10.187057      -277.2039    1-Ag
   1   2.0000     -10.186370      -277.1852    1-B3u
   2   2.0000      -0.747881       -20.3509    2-Ag
   3   2.0000      -0.568737       -15.4761    2-B3u
   4   2.0000      -0.463265       -12.6061    1-B1u
   5   2.0000      -0.417997       -11.3743    3-Ag
   6   2.0000      -0.351484        -9.5644    1-B2g
   7   2.0000      -0.272536        -7.4161    1-B2u
   8   0.0000       0.008707         0.2369    1-B1g
   9   0.0000       0.085364         2.3229    4-Ag
  10   0.0000       0.104728         2.8498    2-B1u
  11   0.0000       0.116505         3.1703    3-B3u
  12   0.0000       0.187303         5.0968    2-B2g

MULLIKEN ATOMIC CHARGES
-----------------------
   0 H :    0.028190
   1 C :   -0.056381
   2 H :    0.028190
   3 C :   -0.056381
   4 H :    0.028190
   5 H :    0.028190
Sum of atomic charges:   -0.0000000

LOEWDIN ATOMIC CHARGES
----------------------
   0 H :    0.024254
   1 C :   -0.048507
   2 H :    0.024254
   3 C :   -0.048507
   4 H :    0.024254
   5 H :    0.024254

  Mayer bond orders larger than 0.100000
B(  0-H ,  1-C ) :   0.9623 B(  1-C ,  2-H ) :   0.9623 B(  1-C ,  3-C ) :   2.0817
B(  3-C ,  4-H ) :   0.9623 B(  3-C ,  5-H ) :   0.9623

FINAL SINGLE POINT ENERGY       -78.473533027227

DIPOLE MOMENT
-------------
                                X             Y             Z
Electronic contribution:     -0.00000      -0.00000      -0.00000
Nuclear contribution   :     -0.00000       0.00000       0.00000
                        -----------------------------------------
Total Dipole Moment    :     -0.00000      -0.00000      -0.00000
                        -----------------------------------------
Magnitude (a.u.)       :      0.00000
Magnitude (Debye)      :      0.00000

VIBRATIONAL FREQUENCIES
-----------------------

Scaling factor for frequencies =  1.000000000  (already applied!)

   0:         0.00 cm**-1
   1:         0.00 cm**-1
   2:         0.00 cm**-1
   3:         0.00 cm**-1
   4:         0.00 cm**-1
   5:         0.00 cm**-1
   6:       822.93 cm**-1
   7:       963.60 cm**-1
   8:       970.62 cm**-1
   9:      1057.84 cm**-1
  10:      1220.50 cm**-1
  11:      1358.36 cm**-1
  12:      1442.73 cm**-1
  13:      1697.68 cm**-1
  14:      3120.24 cm**-1
  15:      3137.37 cm**-1
  16:      3207.79 cm**-1
  17:      3230.43 cm**-1

IR SPECTRUM
-----------

 Mode   freq       eps      Int      T**2         TX        TY        TZ
       cm**-1   L/(mol*cm) km/mol    a.u.
----------------------------------------------------------------------------
  6:    822.93   0.000147    0.74  0.000056  ( 0.000000 -0.000000  0.007457)
  7:    963.60   0.016510   83.44  0.005347  ( 0.000000 -0.073122  0.000000)
  8:    970.62   0.000000    0.00  0.000000  (-0.000000  0.000000 -0.000000)
  9:   1057.84   0.000000    0.00  0.000000  (-0.000000 -0.000000  0.000000)
 10:   1220.50   0.000000    0.00  0.000000  (-0.000000 -0.000000 -0.000000)
 11:   1358.36   0.000000    0.00  0.000000  ( 0.000000  0.000000  0.000000)
 12:   1442.73   0.001320    6.67  0.000285  (-0.016895  0.000000 -0.000000)
 13:   1697.68   0.000000    0.00  0.000000  ( 0.000000 -0.000000  0.000000)
 14:   3120.24   0.002827   14.28  0.000283  (-0.016813 -0.000000  0.000000)
 15:   3137.37   0.000000    0.00  0.000000  (-0.000000  0.000000  0.000000)
 16:   3207.79   0.000000    0.00  0.000000  ( 0.000000 -0.000000  0.000000)
 17:   3230.43   0.003996   20.19  0.000386  (-0.000000  0.000000 -0.019646)

--------------------------
THERMOCHEMISTRY AT 298.15K
--------------------------

Temperature         ... 298.15 K
Pressure            ... 1.00 atm
Total Mass          ... 28.05 AMU

Throughout the following assumptions are being made:
  (1) The electronic state is orbitally nondegenerate
  (2) There are no thermally accessible electronically excited states
  (3) Hindered rotations indicated by low frequency modes are not
      treated as such but are treated as vibrations and this may
      cause some error
  (4) All equations used are the standard statistical mechanics
      equations for an ideal gas
  (5) All vibrations are strictly harmonic

freq.     822.93  E(vib)   ...       0.05
freq.     963.60  E(vib)   ...       0.03
freq.     970.62  E(vib)   ...       0.03
freq.    1057.84  E(vib)   ...       0.02
freq.    1220.50  E(vib)   ...       0.01
freq.    1358.36  E(vib)   ...       0.01
freq.    1442.73  E(vib)   ...       0.00
freq.    1697.68  E(vib)   ...       0.00
freq.    3120.24  E(vib)   ...       0.00
freq.    3137.37  E(vib)   ...       0.00
freq.    3207.79  E(vib)   ...       0.00
freq.    3230.43  E(vib)   ...       0.00

------------
INNER ENERGY
------------

The inner energy is: U= E(el) + E(ZPE) + E(vib) + E(rot) + E(trans)
    E(el)   - is the total energy from the electronic structure calculation
              = E(kin-el) + E(nuc-el) + E(el-el) + E(nuc-nuc)
    E(ZPE)  - the the zero temperature vibrational energy from the frequency calculation
    E(vib)  - the the finite temperature correction to E(ZPE) due to population
              of excited vibrational states
    E(rot)  - is the rotational thermal energy
    E(trans)- is the translational thermal energy

Summary of contributions to the inner energy U:
Electronic energy                ...    -78.47353303 Eh
Zero point energy                ...      0.05064385 Eh      31.78 kcal/mol
Thermal vibrational correction   ...      0.00021777 Eh       0.14 kcal/mol
Thermal rotational correction    ...      0.00141627 Eh       0.89 kcal/mol
Thermal translational correction ...      0.00141627 Eh       0.89 kcal/mol
-----------------------------------------------------------------------
Total thermal energy                    -78.41983886 Eh

Summary of corrections to the electronic energy:
(perhaps to be used in another calculation)
Total thermal correction                  0.00305031 Eh       1.91 kcal/mol
Non-thermal (ZPE) correction              0.05064385 Eh      31.78 kcal/mol
-----------------------------------------------------------------------
Total correction                          0.05369416 Eh      33.69 kcal/mol

--------
ENTHALPY
--------

The enthalpy is H = U + kB*T
                kB is Boltzmann's constant
Total free energy                 ...    -78.41983886 Eh
Thermal Enthalpy correction       ...      0.00094421 Eh       0.59 kcal/mol
-----------------------------------------------------------------------
Total Enthalpy                    ...    -78.41889465 Eh

Note: Rotational entropy computed according to Herzberg
Infrared and Raman Spectra, Chapter V,1, Van Nostrand Reinhold, 1945
Point Group:  D2h, Symmetry Number:   4
Rotational constants in cm-1:     4.820893     0.997363     0.826395

Vibrational entropy computed according to the QRRHO of S. Grimme
Chem.Eur.J. 2012 18 9955

-------
ENTROPY
-------

The entropy contributions are T*S = T*(S(el)+S(vib)+S(rot)+S(trans))
     S(el)   - electronic entropy
     S(vib)  - vibrational entropy
     S(rot)  - rotational entropy
     S(trans)- translational entropy
The entropies will be listed as multiplied by the temperature to get
units of energy

Electronic entropy                ...      0.00000000 Eh      0.00 kcal/mol
Vibrational entropy               ...      0.00026458 Eh      0.17 kcal/mol
Rotational entropy                ...      0.00755058 Eh      4.74 kcal/mol
Translational entropy             ...      0.01707111 Eh     10.71 kcal/mol
-----------------------------------------------------------------------
Final entropy term                ...      0.02488627 Eh     15.62 kcal/mol

In case the symmetry of your molecule has not been determined correctly
or in case you have a reason to use a different symmetry number we print
out the resulting rotational entropy values for sn=1,12 :
 --------------------------------------------------------
|  sn= 1 | S(rot)=       0.00885950 Eh      5.56 kcal/mol|
|  sn= 2 | S(rot)=       0.00820504 Eh      5.15 kcal/mol|
|  sn= 3 | S(rot)=       0.00782221 Eh      4.91 kcal/mol|
|  sn= 4 | S(rot)=       0.00755058 Eh      4.74 kcal/mol|
|  sn= 5 | S(rot)=       0.00733990 Eh      4.61 kcal/mol|
|  sn= 6 | S(rot)=       0.00716775 Eh      4.50 kcal/mol|
|  sn= 7 | S(rot)=       0.00702221 Eh      4.41 kcal/mol|
|  sn= 8 | S(rot)=       0.00689613 Eh      4.33 kcal/mol|
|  sn= 9 | S(rot)=       0.00678492 Eh      4.26 kcal/mol|
|  sn=10 | S(rot)=       0.00668544 Eh      4.20 kcal/mol|
|  sn=11 | S(rot)=       0.00659545 Eh      4.14 kcal/mol|
|  sn=12 | S(rot)=       0.00651330 Eh      4.09 kcal/mol|
 --------------------------------------------------------

-------------------
GIBBS FREE ENERGY
-------------------

The Gibbs free energy is G = H - T*S

Total enthalpy                    ...    -78.41889465 Eh
Total entropy correction          ...     -0.02488627 Eh    -15.62 kcal/mol
-----------------------------------------------------------------------
Final Gibbs free energy         ...    -78.44378093 Eh

For completeness - the Gibbs free energy minus the electronic energy
G-E(el)                           ...      0.02975210 Eh     18.67 kcal/mol

                             ****ORCA TERMINATED NORMALLY****
TOTAL RUN TIME: 0 days 0 hours 0 minutes 17 seconds 791 msec
