                         Program Version 5.0.4 -  RELEASE  -
|  1> ! PAL2
|  2> ! Opt Freq B3LYP Def2-TZVP Def2/J DefGrid2
|  3> ! TightSCF
|  4> ! LargePrint
|  5>
|  6> %MaxCore 1000
|  7>
|  8> * xyz 0 1
|  9> O    0.0000   -0.7920    0.7920
| 10> H    0.0000    0.0000    0.0000
| 11> H    0.0626   -0.4973   -0.4973
| 12> **                         ****END OF INPUT****
 Total Charge           Charge          ....    0
 Multiplicity           Mult            ....    1
 Number of Electrons    NEL             ....   10
FINAL SINGLE POINT ENERGY       -76.249304490724
FINAL SINGLE POINT ENERGY       -76.285264633820
FINAL SINGLE POINT ENERGY       -76.317841131040
FINAL SINGLE POINT ENERGY       -76.348907960614
FINAL SINGLE POINT ENERGY       -76.376404961272
FINAL SINGLE POINT ENERGY       -76.397141247043
FINAL SINGLE POINT ENERGY       -76.410537740675
FINAL SINGLE POINT ENERGY       -76.420227457258
FINAL SINGLE POINT ENERGY       -76.425576507509
FINAL SINGLE POINT ENERGY       -76.426053509176
FINAL SINGLE POINT ENERGY       -76.426055250748
                    ***********************HURRAY********************

CARTESIAN COORDINATES (ANGSTROEM)
---------------------------------
  O      0.014997   -0.654708    0.416430
  H     -0.043060    0.305760    0.378384
  H      0.090663   -0.940352   -0.500114

 Multiplicity           Mult            ....    1
 Number of Electrons    NEL             ....   10
 Basis Dimension        Dim             ....   43

ORBITAL ENERGIES
----------------

  NO   OCC          E(Eh)            E(eV)
   0   2.0000     -19.123854      -520.3865
   1   2.0000      -1.010523       -27.4977
   2   2.0000      -0.531881       -14.4732
   3   2.0000      -0.387105       -10.5337
   4   2.0000      -0.312903        -8.5145
   5   0.0000       0.016509         0.4492
   6   0.0000       0.091488         2.4895
   7   0.0000       0.359504         9.7826
   8   0.0000       0.407458        11.0875
   9   0.0000       0.427849        11.6424

------------------
MOLECULAR ORBITALS
------------------
                      0         1         2         3         4         5
                 -19.12385  -1.01052  -0.53188  -0.38711  -0.31290   0.01651
                   2.00000   2.00000   2.00000   2.00000   2.00000   0.00000
                  --------  --------  --------  --------  --------  --------
  0O   1s        -0.435064 -0.097754  0.000002 -0.036872  0.000001 -0.033401
  0O   2s        -0.639761 -0.229809  0.000004 -0.088106  0.000001 -0.084192
  0O   3s        -0.034171  0.335940 -0.000005  0.137720  0.000001  0.190846
  0O   4s         0.022124  0.435946 -0.000009  0.195091 -0.000012 -0.036717
  0O   5s        -0.009037  0.157872 -0.000015  0.228917  0.000010  1.173568
  0O   1pz        0.001459 -0.070216  0.220966  0.340325 -0.029895 -0.131241
  0O   1px       -0.000027  0.001294 -0.033637 -0.006283 -0.474836  0.002424
  0O   1py       -0.001031  0.049646  0.313457 -0.240582 -0.029883  0.092781
  0O   2pz       -0.002403 -0.058698  0.169204  0.261357 -0.024002 -0.093834
  0O   2px        0.000044  0.001083 -0.025763 -0.004828 -0.381378  0.001734
  0O   2py        0.001699  0.041502  0.240030 -0.184762 -0.023995  0.066303
  0O   3pz        0.000898 -0.009695  0.070285  0.195096 -0.021286 -0.271726
  0O   3px       -0.000016  0.000177 -0.010699 -0.003606 -0.338052  0.005011
  0O   3py       -0.000635  0.006845  0.099703 -0.137919 -0.021277  0.192087
  0O   1dz2      -0.000067  0.001900 -0.010104 -0.003036  0.000378  0.000282
  0O   1dxz       0.000021 -0.000536  0.000995  0.000404  0.003465  0.000165
  0O   1dyz      -0.000058  0.001064 -0.004150  0.002432  0.000063 -0.002096
  0O   1dx2y2     0.000159 -0.004068 -0.005866  0.003551  0.000090  0.001005
  0O   1dxy       0.000024 -0.000585 -0.000475  0.000297 -0.002458  0.000260
  0O   2dz2       0.000333  0.005165 -0.019542 -0.012666  0.002337  0.002741
  0O   2dxz      -0.000109 -0.001260  0.001929  0.000432  0.021440  0.000463
  0O   2dyz       0.000326  0.001116 -0.008029  0.021698  0.000396 -0.009791
  0O   2dx2y2    -0.000812 -0.009789 -0.011346  0.006580  0.000558  0.002224
  0O   2dxy      -0.000124 -0.001312 -0.000918 -0.000540 -0.015199  0.000903
  0O   1f0       -0.000155 -0.002223  0.001557  0.001952 -0.000418 -0.000717
  0O   1f+1       0.000048  0.000673 -0.000546 -0.000549 -0.002671  0.000204
  0O   1f-1      -0.000280 -0.003494  0.001021  0.000859 -0.000305 -0.000456
  0O   1f+2       0.000057  0.001044 -0.002295 -0.001900  0.000774  0.000636
  0O   1f-2       0.000022  0.000288 -0.000701 -0.000158 -0.001298  0.000064
  0O   1f+3      -0.000029 -0.000397 -0.000916  0.000271 -0.004246 -0.000105
  0O   1f-3       0.000176  0.002523  0.003820 -0.002211 -0.000918  0.000810
  1H   1s        -0.000844  0.094151  0.148816 -0.086789  0.000001 -0.038086
  1H   2s        -0.001588  0.069773  0.185612 -0.123035 -0.000007 -0.092802
  1H   3s         0.001879  0.007176  0.067239 -0.045096 -0.000002 -0.938939
  1H   1pz        0.000002 -0.001909  0.009236  0.017842 -0.001595 -0.001066
  1H   1px       -0.000069  0.001195  0.000526 -0.001636 -0.025336  0.002133
  1H   1py        0.001093 -0.017086 -0.017591  0.008141 -0.001592 -0.032825
  2H   1s        -0.000844  0.094145 -0.148813 -0.086798  0.000002 -0.038092
  2H   2s        -0.001588  0.069761 -0.185610 -0.123041  0.000006 -0.092833
  2H   3s         0.001879  0.007170 -0.067240 -0.045099 -0.000004 -0.938936
  2H   1pz       -0.001028  0.015437 -0.019645 -0.001687 -0.001593  0.030521
  2H   1px        0.000088 -0.001445  0.001060  0.001337 -0.025336 -0.002677
  2H   1py       -0.000368  0.007519  0.002827 -0.019557 -0.001594  0.011991
                      6         7         8         9        10        11
                   0.09149   0.35950   0.40746   0.42785   0.43729   0.57090
                   0.00000   0.00000   0.00000   0.00000   0.00000   0.00000
                  --------  --------  --------  --------  --------  --------
  0O   1s        -0.000000 -0.000003 -0.035663 -0.000008 -0.006243 -0.000004
  0O   2s        -0.000002 -0.000007 -0.078119 -0.000018 -0.014781 -0.000009
  0O   3s         0.000012  0.000011 -0.023194  0.000007 -0.008939 -0.000005
  0O   4s        -0.000028  0.000015  0.854040  0.000179  0.192147  0.000163
  0O   5s         0.000031 -0.000000  0.588646  0.000017  0.224302 -0.000238
  0O   1pz        0.145515 -0.066991  0.051922  0.019948 -0.272919  0.202656
  0O   1px       -0.022151  0.010209 -0.001012  0.317035  0.005035 -0.030846
  0O   1py        0.206414 -0.095002 -0.036718  0.019936  0.192934  0.287471
  0O   2pz        0.067593 -0.205608  0.033020  0.043934 -0.623087  0.435798
  0O   2px       -0.010291  0.031317 -0.000749  0.698002  0.011480 -0.066298
  0O   2py        0.095860 -0.291596 -0.023293  0.043926  0.440527  0.618247
  0O   3pz        0.395354 -0.695912 -1.168681 -0.077435  0.565977 -1.168523
  0O   3px       -0.060169  0.105885  0.021769 -1.228393 -0.010439  0.177819
  0O   3py        0.560786 -0.987094  0.826462 -0.077083 -0.399901 -1.657601
  0O   1dz2       0.001015 -0.026402 -0.008017 -0.000588  0.000547 -0.008569
  0O   1dxz      -0.000100  0.002600  0.002236 -0.005392  0.000925  0.000845
  0O   1dyz       0.000418 -0.010847 -0.004297 -0.000099 -0.009613 -0.003518
  0O   1dx2y2     0.000589 -0.015328  0.017042 -0.000137  0.005913 -0.004976
  0O   1dxy       0.000048 -0.001241  0.002433  0.003824  0.001358 -0.000402
  0O   2dz2       0.016750  0.104993  0.034433  0.000661  0.005422  0.044819
  0O   2dxz      -0.001650 -0.010343 -0.007538  0.006061 -0.001188 -0.004420
  0O   2dyz       0.006882  0.043125 -0.000515  0.000108 -0.000072  0.018412
  0O   2dx2y2     0.009729  0.060963 -0.059689  0.000151 -0.009434  0.026018
  0O   2dxy       0.000789  0.004932 -0.007540 -0.004302 -0.001194  0.002106
  0O   1f0       -0.002073 -0.007267 -0.006542  0.000144 -0.003930 -0.001744
  0O   1f+1       0.000094  0.001576  0.002027  0.000922  0.001209  0.000174
  0O   1f-1       0.000776 -0.001496 -0.012549  0.000122 -0.007085  0.000328
  0O   1f+2      -0.001756  0.003328  0.002068 -0.000297  0.001443 -0.000752
  0O   1f-2      -0.000299  0.001384  0.000944  0.000624  0.000549 -0.000066
  0O   1f+3      -0.000132  0.002200 -0.001248  0.001564 -0.000733  0.000093
  0O   1f-3      -0.000037 -0.010080  0.007434  0.000354  0.004468 -0.000786
  1H   1s        -0.033138  0.123532 -0.085634 -0.000020 -0.083335 -0.062053
  1H   2s        -0.020956  1.464544 -1.474120 -0.000299 -0.835972 -0.102881
  1H   3s        -1.638641 -0.532788  0.387377  0.000042  0.560425  1.624953
  1H   1pz        0.006237 -0.016453 -0.015007  0.000239 -0.020444  0.006925
  1H   1px        0.002554  0.007410 -0.004951  0.003803 -0.000481  0.002070
  1H   1py       -0.046805 -0.101296  0.093694  0.000256  0.028096 -0.039762
  2H   1s         0.033147 -0.123557 -0.085614 -0.000014 -0.083320  0.062048
  2H   2s         0.021016 -1.464791 -1.473781 -0.000207 -0.835691  0.102774
  2H   3s         1.638574  0.532961  0.387447  0.000149  0.560485 -1.624763
  2H   1pz       -0.046121 -0.089809 -0.093144  0.000230 -0.033253 -0.039745
  2H   1px        0.003519  0.008766  0.006947  0.003809  0.001470  0.002930
  2H   1py       -0.009783 -0.049430 -0.017190  0.000239  0.009901 -0.006780
                     12        13        14        15        16        17
                   0.59717   1.16924   1.18867   1.29806   1.52299   1.63090
                   0.00000   0.00000   0.00000   0.00000   0.00000   0.00000
                  --------  --------  --------  --------  --------  --------
  0O   1s         0.051982  0.003603 -0.000000  0.000000  0.000001  0.015425
  0O   2s         0.107674  0.009327  0.000002  0.000001  0.000005  0.051904
  0O   3s         0.099520 -0.036614 -0.000028 -0.000009 -0.000003 -0.403408
  0O   4s        -2.260794 -0.079072  0.000106  0.000013 -0.000126  0.747977
  0O   5s         4.830041  0.915927 -0.000280 -0.000003 -0.000013  1.829736
  0O   1pz        0.059391 -0.067028  0.000032 -0.006244  0.068656  0.083364
  0O   1px       -0.001100  0.001247 -0.000008 -0.099478 -0.010465 -0.001545
  0O   1py       -0.041976  0.047354 -0.000002 -0.006250  0.097367 -0.059032
  0O   2pz       -0.001680 -0.124861 -0.000010 -0.003237 -0.537090 -0.433396
  0O   2px        0.000052  0.002298  0.000016 -0.050269  0.081791  0.007986
  0O   2py        0.001280  0.088381 -0.000018 -0.003212 -0.761932  0.306734
  0O   3pz       -1.014095 -0.465617  0.000139 -0.013261 -0.548487 -0.762008
  0O   3px        0.018678  0.008604 -0.000003 -0.210223  0.083494  0.014036
  0O   3py        0.716822  0.329178 -0.000042 -0.013247 -0.778013  0.538683
  0O   1dz2      -0.006392 -0.003051 -0.000529 -0.000086 -0.007983 -0.003347
  0O   1dxz       0.001976 -0.000529 -0.004825 -0.000755  0.000788  0.000574
  0O   1dyz      -0.005198  0.011011 -0.000743 -0.000011 -0.003279  0.001488
  0O   1dx2y2     0.014842 -0.002542  0.001177 -0.000022 -0.004632  0.004766
  0O   1dxy       0.002213 -0.001019 -0.006861  0.000536 -0.000377  0.000510
  0O   2dz2       0.026004 -0.216652 -0.033725 -0.059830  0.982821  0.466910
  0O   2dxz      -0.006041 -0.004270 -0.306431 -0.548508 -0.096825 -0.131833
  0O   2dyz       0.002741  0.477772 -0.047182 -0.010083  0.403767  0.265596
  0O   2dx2y2    -0.047269  0.036375  0.074720 -0.014243  0.570599 -1.003024
  0O   2dxy      -0.006179 -0.025738 -0.435941  0.388843  0.046197 -0.144058
  0O   1f0       -0.004760 -0.003429 -0.001142  0.000137 -0.047558 -0.030776
  0O   1f+1       0.001484  0.001071 -0.007332  0.000988  0.007683  0.009324
  0O   1f-1      -0.009560 -0.006929 -0.000798 -0.001193 -0.000871 -0.048044
  0O   1f+2       0.001309  0.000931  0.000714  0.001960  0.001737  0.014602
  0O   1f-2       0.000707  0.000510 -0.003304 -0.012400  0.003921  0.003974
  0O   1f+3      -0.000922 -0.000664  0.005753 -0.005959  0.008773 -0.005480
  0O   1f-3       0.005410  0.003912  0.000831 -0.002130 -0.044952  0.034961
  1H   1s         0.022476  0.039354 -0.000009 -0.000014 -0.372697  0.356388
  1H   2s        -0.902389 -0.589252  0.000094  0.000113  2.191535 -2.100289
  1H   3s        -0.971076 -0.048235  0.000022 -0.000041 -0.517822  0.200977
  1H   1pz       -0.021211  0.421855 -0.026667  0.023922  0.246709  0.014196
  1H   1px       -0.003964 -0.030834 -0.422502  0.378996  0.009378 -0.018587
  1H   1py        0.084205  0.066664 -0.026603  0.023829 -0.396369  0.281075
  2H   1s         0.022484  0.039328 -0.000009  0.000002  0.372713  0.356323
  2H   2s        -0.902317 -0.589049  0.000150 -0.000128 -2.191443 -2.099747
  2H   3s        -0.971164 -0.048298  0.000038  0.000048  0.517836  0.200801
  2H   1pz       -0.086328  0.078561  0.026576  0.023850 -0.455466 -0.259544
  2H   1px        0.005957  0.021554  0.422498  0.379016  0.022347  0.023131
  2H   1py       -0.008175 -0.420375  0.026661  0.023806  0.100137 -0.107368
                     18        19        20        21        22        23
                   1.74741   1.97776   2.05194   2.10337   2.27988   2.38200
                   0.00000   0.00000   0.00000   0.00000   0.00000   0.00000
                  --------  --------  --------  --------  --------  --------
  0O   1s        -0.000001  0.014202 -0.000000  0.000001  0.000001 -0.016638
  0O   2s        -0.000003  0.061567 -0.000002  0.000003  0.000004 -0.062094
  0O   3s        -0.000005 -0.798809  0.000095  0.000013  0.000016  0.569810
  0O   4s         0.000107  2.558843 -0.000398 -0.000140 -0.000225 -1.283198
  0O   5s        -0.000111 -0.141286  0.000031 -0.000055  0.000133 -0.564673
  0O   1pz       -0.097492  0.332855  0.020301  0.000036  0.238744  0.388174
  0O   1px        0.014836 -0.006079  0.322565 -0.000075 -0.036321 -0.007178
  0O   1py       -0.138304 -0.235275  0.020344  0.000068  0.338577 -0.274403
  0O   2pz        0.183825 -1.075944 -0.010078 -0.000043 -1.240389  0.011356
  0O   2px       -0.027987  0.019799 -0.161837  0.000101  0.188784 -0.000187
  0O   2py        0.260857  0.760676 -0.010324 -0.000220 -1.759508 -0.008043
  0O   3pz       -0.212966  0.057660  0.030233  0.000060  0.218756  0.681980
  0O   3px        0.032419 -0.000988  0.480279 -0.000029 -0.033307 -0.012593
  0O   3py       -0.302201 -0.040715  0.030255  0.000054  0.310389 -0.482073
  0O   1dz2       0.010485 -0.000947  0.000848  0.000856 -0.031392 -0.001915
  0O   1dxz      -0.001034  0.000399  0.007772  0.007768  0.003094  0.000116
  0O   1dyz       0.004307 -0.001713  0.000146  0.001194 -0.012891  0.002818
  0O   1dx2y2     0.006089  0.002870  0.000201 -0.001896 -0.018233  0.001325
  0O   1dxy       0.000493  0.000473 -0.005520  0.011054 -0.001474 -0.000009
  0O   2dz2      -0.379425 -0.138825 -0.077915 -0.067425  0.102668 -0.390383
  0O   2dxz       0.037399  0.006616 -0.713950 -0.612556 -0.010039 -0.015289
  0O   2dyz      -0.155864  0.218853 -0.013231 -0.094144  0.042147  0.930639
  0O   2dx2y2    -0.220214  0.085652 -0.018649  0.149332  0.059556  0.015863
  0O   2dxy      -0.017839 -0.002963  0.506198 -0.871335  0.004893 -0.056838
  0O   1f0        0.024340 -0.061970  0.000240 -0.000476 -0.088230  0.026618
  0O   1f+1      -0.003250  0.019279  0.001566 -0.003032  0.015681 -0.008451
  0O   1f-1      -0.001864 -0.123369 -0.001240 -0.000320 -0.006454  0.061805
  0O   1f+2       0.004310  0.017538  0.002022  0.000298  0.014097 -0.003610
  0O   1f-2      -0.000674  0.009149 -0.013461 -0.001359  0.010058 -0.004313
  0O   1f+3      -0.003031 -0.011955 -0.005819  0.002383  0.019325  0.005442
  0O   1f-3       0.017553  0.070409 -0.002190  0.000328 -0.094793 -0.030268
  1H   1s         0.126563  0.647151 -0.000098 -0.000097 -0.487049 -0.223219
  1H   2s        -0.483226 -1.880763  0.000284  0.000290  1.887616  1.026111
  1H   3s         0.372025  0.495289 -0.000084 -0.000115 -0.786691 -0.037303
  1H   1pz        0.758607 -0.174772 -0.047259  0.047691  0.134327 -0.720841
  1H   1px       -0.058678 -0.039521 -0.751835  0.757532  0.060263  0.074666
  1H   1py        0.173867  0.801924 -0.047470  0.047539 -1.092389 -0.465677
  2H   1s        -0.126567  0.647247 -0.000084 -0.000001  0.487198 -0.223251
  2H   2s         0.483279 -1.880773  0.000266  0.000012 -1.887708  1.026168
  2H   3s        -0.372008  0.495375 -0.000054  0.000071  0.786702 -0.037292
  2H   1pz       -0.090441 -0.813017 -0.047171 -0.047673 -1.072715  0.196893
  2H   1px       -0.043014  0.057520 -0.751781 -0.757592  0.082642 -0.064997
  2H   1py        0.774046 -0.103594 -0.047302 -0.047657 -0.238968  0.836059
                     24        25        26        27        28        29
                   2.57147   2.60103   2.60564   2.77137   3.62656   3.92280
                   0.00000   0.00000   0.00000   0.00000   0.00000   0.00000
                  --------  --------  --------  --------  --------  --------
  0O   1s        -0.000050  0.037609  0.000173 -0.113741  0.053672 -0.000003
  0O   2s        -0.000139  0.107352  0.000488 -0.377806  0.218306 -0.000010
  0O   3s         0.000291 -0.230891 -0.000930  2.241698 -2.398457  0.000139
  0O   4s         0.000975 -0.798451 -0.004087 -2.664138  5.376205 -0.000445
  0O   5s         0.001726 -1.404630 -0.006496  3.012468 -0.486814  0.000104
  0O   1pz       -0.540673  0.651313  0.076099  0.385375  0.413452  0.396685
  0O   1px        0.082504 -0.017402  1.158152 -0.007142 -0.007596 -0.060392
  0O   1py       -0.765411 -0.462462  0.070905 -0.272390 -0.292170  0.562676
  0O   2pz       -0.023550 -0.164463 -0.105856 -1.032769 -2.006247 -1.839639
  0O   2px        0.003160  0.010924 -1.671165  0.019087  0.036962  0.280060
  0O   2py       -0.033559  0.117195 -0.104601  0.730192  1.418164 -2.609743
  0O   3pz       -0.618252  0.536333  0.038373 -0.307889  0.010516  0.073368
  0O   3px        0.094190 -0.012488  0.567379  0.005663 -0.000184 -0.011177
  0O   3py       -0.875673 -0.381018  0.034117  0.217747 -0.007375  0.104102
  0O   1dz2      -0.030626  0.006322 -0.000473  0.001769 -0.007425 -0.034204
  0O   1dxz       0.003012 -0.002350 -0.004737  0.000142  0.005938  0.003368
  0O   1dyz      -0.012597  0.009012 -0.000039 -0.004899 -0.039475 -0.014059
  0O   1dx2y2    -0.017741 -0.017522 -0.000202  0.000431  0.041088 -0.019867
  0O   1dxy      -0.001440 -0.002811  0.003329  0.000361  0.007711 -0.001608
  0O   2dz2       0.718348 -0.008749  0.022753  0.271189  0.404027  1.364231
  0O   2dxz      -0.070873  0.078982  0.211045 -0.037193 -0.113840 -0.134410
  0O   2dyz       0.295959 -0.715280  0.000425 -0.207528  0.227896  0.560411
  0O   2dx2y2     0.416401  0.527574  0.007902 -0.324421 -0.866309  0.792125
  0O   2dxy       0.033577  0.112891 -0.148910 -0.028047 -0.124338  0.064157
  0O   1f0       -0.045686  0.040991  0.001380 -0.012918  0.075301  0.175444
  0O   1f+1       0.007926 -0.012452  0.007323  0.004257 -0.022846 -0.037229
  0O   1f-1      -0.002754  0.062860  0.001685 -0.038169  0.118134  0.033419
  0O   1f+2       0.005799 -0.019987 -0.003148 -0.001893 -0.035463 -0.074345
  0O   1f-2       0.004831 -0.005272  0.008757  0.002455 -0.009727 -0.031877
  0O   1f+3       0.009564  0.007204  0.014776 -0.002929  0.013418 -0.051432
  0O   1f-3      -0.047396 -0.046671  0.003351  0.014696 -0.085465  0.237112
  1H   1s         0.200094  0.123189  0.000530 -0.095802 -0.714637  0.953146
  1H   2s         1.050141  1.124859  0.005077 -0.921647 -1.688889  1.519997
  1H   3s         0.374281  0.149159  0.000597 -0.342691  0.364443 -0.401559
  1H   1pz       -0.034729  0.463833  0.023153  0.309194  0.136186  0.155609
  1H   1px        0.064661  0.027020  0.333147 -0.053057 -0.094992  0.071660
  1H   1py       -0.991019 -0.918058  0.016867  0.533798  1.373202 -1.294132
  2H   1s        -0.200415  0.122625  0.000665 -0.095746 -0.714640 -0.952977
  2H   2s        -1.052912  1.122592  0.005643 -0.921455 -1.688879 -1.519800
  2H   3s        -0.374639  0.148168  0.000735 -0.342630  0.364480  0.401497
  2H   1pz       -0.923466  1.016902  0.026058 -0.398640 -1.246623 -1.269697
  2H   1px        0.081093 -0.057285  0.332618  0.054677  0.115500  0.097933
  2H   1py       -0.364268 -0.131382  0.020454 -0.470404 -0.588210 -0.286374
                     30        31        32        33        34        35
                   5.09905   5.19689   5.37635   5.39816   5.46668   6.01481
                   0.00000   0.00000   0.00000   0.00000   0.00000   0.00000
                  --------  --------  --------  --------  --------  --------
  0O   1s         0.000002 -0.000008  0.000001  0.000002  0.000000 -0.000010
  0O   2s         0.000005  0.001035  0.000000  0.000004 -0.000000 -0.000030
  0O   3s        -0.000070 -0.036595 -0.000011 -0.000027  0.000019  0.000367
  0O   4s         0.000163  0.106081  0.000026  0.000035 -0.000076 -0.000770
  0O   5s         0.000059  0.174585 -0.000009 -0.000034 -0.000020  0.000104
  0O   1pz        0.000307  0.036138 -0.003930 -0.000020  0.065177 -0.164434
  0O   1px        0.004477 -0.000681 -0.062279 -0.000086 -0.009913  0.025006
  0O   1py        0.000239 -0.025565 -0.003949 -0.000031  0.092467 -0.233130
  0O   2pz       -0.000879 -0.142615  0.010524  0.000114 -0.317599  0.950190
  0O   2px       -0.012578  0.002654  0.166124  0.000181  0.048351 -0.144579
  0O   2py       -0.000652  0.100851  0.010576  0.000153 -0.450577  1.347213
  0O   3pz       -0.000376 -0.087354  0.004482  0.000020 -0.090816 -0.110353
  0O   3px       -0.005384  0.001612  0.070939  0.000065  0.013846  0.016782
  0O   3py       -0.000328  0.061732  0.004480  0.000009 -0.128837 -0.156486
  0O   1dz2      -0.000992  0.065798 -0.017048 -0.017252 -0.014163 -0.598899
  0O   1dxz      -0.009505  0.001262 -0.156175 -0.156372  0.001377  0.058940
  0O   1dyz      -0.000273 -0.144900 -0.002867 -0.024001 -0.005833 -0.246252
  0O   1dx2y2    -0.000260 -0.011244 -0.004123  0.038103 -0.008277 -0.347354
  0O   1dxy       0.006654  0.007766  0.111194 -0.222076 -0.000683 -0.028124
  0O   2dz2       0.003059  0.030545 -0.006517 -0.004684  0.180957 -0.433273
  0O   2dxz       0.028052  0.000257 -0.059275 -0.042052 -0.017852  0.042752
  0O   2dyz       0.000494 -0.064398 -0.001100 -0.006483  0.074330 -0.177883
  0O   2dx2y2     0.000701 -0.007254 -0.001588  0.010190  0.105109 -0.251565
  0O   2dxy      -0.019866  0.003138  0.042077 -0.059716  0.008519 -0.020361
  0O   1f0        0.065076 -0.338731  0.079897  0.115830  0.499770  0.561219
  0O   1f+1       0.424577  0.081783  0.509693  0.743255  0.022990 -0.091925
  0O   1f-1      -0.062618  0.562877  0.059136  0.080956 -0.341711  0.014516
  0O   1f+2       0.069499  0.646944 -0.149097 -0.072554  0.771599 -0.029512
  0O   1f-2      -0.895235 -0.003223  0.253778  0.335523  0.161166 -0.048599
  0O   1f+3       0.031066 -0.022315  0.815753 -0.580989  0.129641 -0.105962
  0O   1f-3      -0.064414  0.381760  0.176993 -0.083953 -0.356281  0.539571
  1H   1s        -0.000037 -0.005224 -0.000040 -0.000056  0.137113 -0.658632
  1H   2s        -0.000127 -0.164991 -0.000079 -0.000081  0.322879 -0.584242
  1H   3s         0.000020 -0.000834  0.000013  0.000021 -0.022887  0.166529
  1H   1pz        0.001385  0.171791 -0.016994  0.016528  0.313963  0.005959
  1H   1px        0.020666 -0.014870 -0.269097  0.263327 -0.007959 -0.048467
  1H   1py        0.001377  0.064575 -0.016885  0.016640 -0.187702  0.763869
  2H   1s        -0.000006 -0.005219  0.000035  0.000062 -0.137065  0.658970
  2H   2s        -0.000080 -0.164985  0.000065  0.000088 -0.322802  0.584524
  2H   3s        -0.000003 -0.000850 -0.000006 -0.000007  0.022881 -0.166585
  2H   1pz        0.001295 -0.003257 -0.016844 -0.016526 -0.281691  0.717208
  2H   1px        0.020658  0.011724 -0.268531 -0.263900  0.002965 -0.061568
  2H   1py        0.001208 -0.183696 -0.016927 -0.016611  0.233421  0.261557
                     36        37        38        39        40        41
                   6.20513   6.29903   6.36460   6.41043   6.90098   6.97954
                   0.00000   0.00000   0.00000   0.00000   0.00000   0.00000
                  --------  --------  --------  --------  --------  --------
  0O   1s        -0.015233 -0.000004 -0.000001  0.004498 -0.023310  0.000001
  0O   2s        -0.052691 -0.000013 -0.000003  0.017586 -0.082124  0.000002
  0O   3s         0.745105  0.000166  0.000022 -0.292698  1.276935 -0.000011
  0O   4s        -1.813088 -0.000394 -0.000039  0.720182 -3.012540 -0.000065
  0O   5s         0.416382  0.000129  0.000042  0.322675 -0.574108  0.000061
  0O   1pz       -0.109832 -0.001624 -0.000020  0.077055 -0.207971  0.213352
  0O   1px        0.002024 -0.025253  0.000023 -0.001420  0.003828 -0.032456
  0O   1py        0.077784 -0.001582 -0.000025 -0.054490  0.147041  0.302633
  0O   2pz        0.665176  0.006692  0.000082 -0.446183  1.282734 -1.189451
  0O   2px       -0.012241  0.103586 -0.000085  0.008220 -0.023630  0.181032
  0O   2py       -0.471091  0.006471  0.000113  0.315545 -0.907113 -1.687272
  0O   3pz       -0.130964  0.002910 -0.000030 -0.157199  0.187928 -0.172375
  0O   3px        0.002396  0.047115 -0.000019  0.002901 -0.003467  0.026244
  0O   3py        0.092705  0.002980 -0.000008  0.111086 -0.132886 -0.244476
  0O   1dz2      -0.350723  0.102750  0.071628 -0.564650  0.141910 -0.805126
  0O   1dxz       0.112969  0.943003  0.651714  0.016528 -0.075835  0.079311
  0O   1dyz      -0.329519  0.017376  0.100249  0.990135  0.409187 -0.330834
  0O   1dx2y2     0.846757  0.024698 -0.158975  0.276706 -0.539265 -0.467385
  0O   1dxy       0.128402 -0.667892  0.927900 -0.027566 -0.094312 -0.037829
  0O   2dz2       0.053891 -0.061947 -0.048004  0.445934 -0.339944  1.553446
  0O   2dxz      -0.018599 -0.568013 -0.436146 -0.025335  0.145465 -0.153049
  0O   2dyz       0.063413 -0.010510 -0.067119 -0.669362 -0.647658  0.638237
  0O   2dx2y2    -0.138723 -0.014809  0.106364 -0.299056  1.054666  0.901878
  0O   2dxy      -0.021676  0.402286 -0.620969  0.004429  0.174793  0.073027
  0O   1f0        0.243977  0.017567  0.035650 -0.127679  0.421822 -0.564091
  0O   1f+1      -0.074982  0.111686  0.228426  0.035455 -0.131161  0.090535
  0O   1f-1       0.432472  0.012170  0.024877 -0.029461  0.835180 -0.008393
  0O   1f+2      -0.092936 -0.031066 -0.022225  0.136333 -0.121491  0.016011
  0O   1f-2      -0.033757  0.046743  0.103038  0.009071 -0.062109  0.045341
  0O   1f+3       0.045257  0.172960 -0.179156 -0.016796  0.081233  0.102739
  0O   1f-3      -0.277539  0.036938 -0.025900  0.144613 -0.479400 -0.528317
  1H   1s         0.439752  0.000077 -0.000041 -0.159138  0.851762  0.920721
  1H   2s         0.236889  0.000017 -0.000070 -0.446264  1.232055  1.189746
  1H   3s        -0.080391 -0.000012  0.000016  0.017308 -0.096567 -0.170401
  1H   1pz       -0.008549 -0.011239  0.014414  0.264564  0.141018 -0.019057
  1H   1px        0.032614 -0.178588  0.228865 -0.033591  0.050082  0.054383
  1H   1py       -0.509213 -0.011317  0.014459  0.268907 -0.936766 -0.844865
  2H   1s         0.439212  0.000112  0.000060 -0.159056  0.851511 -0.920674
  2H   2s         0.236414  0.000034  0.000029 -0.446230  1.231792 -1.189775
  2H   3s        -0.080232 -0.000027 -0.000021  0.017284 -0.096531  0.170388
  2H   1pz        0.475710 -0.011125 -0.014326 -0.164386  0.928530 -0.788670
  2H   1px       -0.041104 -0.178791 -0.228671  0.031746 -0.069806  0.068578
  2H   1py        0.178349 -0.011223 -0.014387 -0.339613  0.180465 -0.300784
                     42
                  43.22399
                   0.00000
                  --------
  0O   1s        -1.390512
  0O   2s         1.696157
  0O   3s        -1.593204
  0O   4s         1.787423
  0O   5s        -0.721970
  0O   1pz        0.031089
  0O   1px       -0.000573
  0O   1py       -0.021976
  0O   2pz       -0.199658
  0O   2px        0.003682
  0O   2py        0.141149
  0O   3pz        0.055420
  0O   3px       -0.001022
  0O   3py       -0.039184
  0O   1dz2      -0.003325
  0O   1dxz       0.001188
  0O   1dyz      -0.004176
  0O   1dx2y2     0.008771
  0O   1dxy       0.001377
  0O   2dz2       0.035679
  0O   2dxz      -0.012502
  0O   2dyz       0.042601
  0O   2dx2y2    -0.092545
  0O   2dxy      -0.014438
  0O   1f0       -0.023919
  0O   1f+1       0.007389
  0O   1f-1      -0.044780
  0O   1f+2       0.008032
  0O   1f-2       0.003410
  0O   1f+3      -0.004515
  0O   1f-3       0.027171
  1H   1s        -0.095735
  1H   2s        -0.169383
  1H   3s         0.156534
  1H   1pz       -0.005872
  1H   1px       -0.007822
  1H   1py        0.130162
  2H   1s        -0.095729
  2H   2s        -0.169381
  2H   3s         0.156523
  2H   1pz       -0.124452
  2H   1px        0.010227
  2H   1py       -0.038036

MULLIKEN ATOMIC CHARGES
-----------------------
   0 O :   -0.632137
   1 H :    0.316061
   2 H :    0.316077
Sum of atomic charges:   -0.0000000

LOEWDIN ATOMIC CHARGES
----------------------
   0 O :   -0.311314
   1 H :    0.155648
   2 H :    0.155666

  Mayer bond orders larger than 0.100000
B(  0-O ,  1-H ) :   0.9102 B(  0-O ,  2-H ) :   0.9102

FINAL SINGLE POINT ENERGY       -76.426055465834

DIPOLE MOMENT
-------------
                                X             Y             Z
Electronic contribution:     -0.00244      -0.09323       0.13192
Nuclear contribution   :      0.01466       0.56170      -0.79456
                        -----------------------------------------
Total Dipole Moment    :      0.01222       0.46847      -0.66265
                        -----------------------------------------
Magnitude (a.u.)       :      0.81161
Magnitude (Debye)      :      2.06295

VIBRATIONAL FREQUENCIES
-----------------------

Scaling factor for frequencies =  1.000000000  (already applied!)

   0:         0.00 cm**-1
   1:         0.00 cm**-1
   2:         0.00 cm**-1
   3:         0.00 cm**-1
   4:         0.00 cm**-1
   5:         0.00 cm**-1
   6:      1616.39 cm**-1
   7:      3780.24 cm**-1
   8:      3884.95 cm**-1

IR SPECTRUM
-----------

 Mode   freq       eps      Int      T**2         TX        TY        TZ
       cm**-1   L/(mol*cm) km/mol    a.u.
----------------------------------------------------------------------------
  6:   1616.39   0.015950   80.61  0.003079  ( 0.000857  0.032034 -0.045304)
  7:   3780.24   0.000829    4.19  0.000068  ( 0.000107  0.004754 -0.006768)
  8:   3884.95   0.008548   43.20  0.000687  (-0.002299  0.021335  0.015039)

--------------------------
THERMOCHEMISTRY AT 298.15K
--------------------------

Temperature         ... 298.15 K
Pressure            ... 1.00 atm
Total Mass          ... 18.02 AMU

Throughout the following assumptions are being made:
  (1) The electronic state is orbitally nondegenerate
  (2) There are no thermally accessible electronically excited states
  (3) Hindered rotations indicated by low frequency modes are not
      treated as such but are treated as vibrations and this may
      cause some error
  (4) All equations used are the standard statistical mechanics
      equations for an ideal gas
  (5) All vibrations are strictly harmonic

freq.    1616.39  E(vib)   ...       0.00
freq.    3780.24  E(vib)   ...       0.00
freq.    3884.95  E(vib)   ...       0.00

------------
INNER ENERGY
------------

The inner energy is: U= E(el) + E(ZPE) + E(vib) + E(rot) + E(trans)
    E(el)   - is the total energy from the electronic structure calculation
              = E(kin-el) + E(nuc-el) + E(el-el) + E(nuc-nuc)
    E(ZPE)  - the the zero temperature vibrational energy from the frequency calculation
    E(vib)  - the the finite temperature correction to E(ZPE) due to population
              of excited vibrational states
    E(rot)  - is the rotational thermal energy
    E(trans)- is the translational thermal energy

Summary of contributions to the inner energy U:
Electronic energy                ...    -76.42605547 Eh
Zero point energy                ...      0.02114500 Eh      13.27 kcal/mol
Thermal vibrational correction   ...      0.00000302 Eh       0.00 kcal/mol
Thermal rotational correction    ...      0.00141627 Eh       0.89 kcal/mol
Thermal translational correction ...      0.00141627 Eh       0.89 kcal/mol
-----------------------------------------------------------------------
Total thermal energy                    -76.40207491 Eh

Summary of corrections to the electronic energy:
(perhaps to be used in another calculation)
Total thermal correction                  0.00283556 Eh       1.78 kcal/mol
Non-thermal (ZPE) correction              0.02114500 Eh      13.27 kcal/mol
-----------------------------------------------------------------------
Total correction                          0.02398056 Eh      15.05 kcal/mol

--------
ENTHALPY
--------

The enthalpy is H = U + kB*T
                kB is Boltzmann's constant
Total free energy                 ...    -76.40207491 Eh
Thermal Enthalpy correction       ...      0.00094421 Eh       0.59 kcal/mol
-----------------------------------------------------------------------
Total Enthalpy                    ...    -76.40113070 Eh

The point group will now be determined using a tolerance of 1.0000e-04.

WARNING (ORCA_SYM): The standard basis set is uninitialized at this point.
The point group is determined without considering basis set information.

Splitting atom subsets according to nuclear charge, mass and basis set.
Splitting atom subsets according to distance from the molecule's center.
Identifying relative distance patterns of the atoms.
Splitting atom subsets according to atoms' relative distance patterns.
Bring atoms of each subset into input order.
The molecule is planar.
There is at least one atom subset not centered around the molecule's center.
The molecule does not have a center of inversion.
Analyzing the first atom subset for its symmetry.
Testing point group C2v.
Success!
This point group has been found:    C2v
Largest non-degenerate subgroup:    C2v

Mass-centered symmetry-perfected Cartesians (point group C2v):

Atom          Symmetry-perfected Cartesians (x, y, z; au)
  0       0.000000000000    0.000000000000    0.123623288547
  1       0.000000000000    1.446114731847   -0.981075889615
  2       0.000000000000   -1.446114731847   -0.981075889615

Note: Rotational entropy computed according to Herzberg
Infrared and Raman Spectra, Chapter V,1, Van Nostrand Reinhold, 1945
Point Group:  C2v, Symmetry Number:   2
Rotational constants in cm-1:    27.552276    14.279027     9.404911

Vibrational entropy computed according to the QRRHO of S. Grimme
Chem.Eur.J. 2012 18 9955

-------
ENTROPY
-------

The entropy contributions are T*S = T*(S(el)+S(vib)+S(rot)+S(trans))
     S(el)   - electronic entropy
     S(vib)  - vibrational entropy
     S(rot)  - rotational entropy
     S(trans)- translational entropy
The entropies will be listed as multiplied by the temperature to get
units of energy

Electronic entropy                ...      0.00000000 Eh      0.00 kcal/mol
Vibrational entropy               ...      0.00000341 Eh      0.00 kcal/mol
Rotational entropy                ...      0.00497761 Eh      3.12 kcal/mol
Translational entropy             ...      0.01644380 Eh     10.32 kcal/mol
-----------------------------------------------------------------------
Final entropy term                ...      0.02142482 Eh     13.44 kcal/mol

In case the symmetry of your molecule has not been determined correctly
or in case you have a reason to use a different symmetry number we print
out the resulting rotational entropy values for sn=1,12 :
 --------------------------------------------------------
|  sn= 1 | S(rot)=       0.00563206 Eh      3.53 kcal/mol|
|  sn= 2 | S(rot)=       0.00497761 Eh      3.12 kcal/mol|
|  sn= 3 | S(rot)=       0.00459477 Eh      2.88 kcal/mol|
|  sn= 4 | S(rot)=       0.00432315 Eh      2.71 kcal/mol|
|  sn= 5 | S(rot)=       0.00411246 Eh      2.58 kcal/mol|
|  sn= 6 | S(rot)=       0.00394032 Eh      2.47 kcal/mol|
|  sn= 7 | S(rot)=       0.00379477 Eh      2.38 kcal/mol|
|  sn= 8 | S(rot)=       0.00366869 Eh      2.30 kcal/mol|
|  sn= 9 | S(rot)=       0.00355749 Eh      2.23 kcal/mol|
|  sn=10 | S(rot)=       0.00345801 Eh      2.17 kcal/mol|
|  sn=11 | S(rot)=       0.00336802 Eh      2.11 kcal/mol|
|  sn=12 | S(rot)=       0.00328586 Eh      2.06 kcal/mol|
 --------------------------------------------------------

-------------------
GIBBS FREE ENERGY
-------------------

The Gibbs free energy is G = H - T*S

Total enthalpy                    ...    -76.40113070 Eh
Total entropy correction          ...     -0.02142482 Eh    -13.44 kcal/mol
-----------------------------------------------------------------------
Final Gibbs free energy         ...    -76.42255551 Eh

For completeness - the Gibbs free energy minus the electronic energy
G-E(el)                           ...      0.00349995 Eh      2.20 kcal/mol

                             ****ORCA TERMINATED NORMALLY****
TOTAL RUN TIME: 0 days 0 hours 0 minutes 50 seconds 17 msec
