                         Program Version 5.0.1  -   Release   -
|  1> ! B3LYP def2-SVP Freq
|  2>
|  3> * xyz 0 1
|  4>   H    1.14763538032723      0.06787867944812      1.04401871500948
|  5>   C    0.66349268258141     -0.00443412366993      0.06448921374936
|  6>   H    1.32609585559607     -0.08470073189697     -0.80365926899303
|  7>   C   -0.66349297051130      0.00443446347416     -0.06448407909659
|  8>   H   -1.32610760697121      0.08470054881831      0.80365397958594
|  9>   H   -1.14762334102220     -0.06787883617369     -1.04401856025516
| 10> *
| 11>
| 12>
| 13>                          ****END OF INPUT****

CARTESIAN COORDINATES (ANGSTROEM)
---------------------------------
  H      1.147635    0.067879    1.044019
  C      0.663493   -0.004434    0.064489
  H      1.326096   -0.084701   -0.803659
  C     -0.663493    0.004434   -0.064484
  H     -1.326108    0.084701    0.803654
  H     -1.147623   -0.067879   -1.044019

 Total Charge           Charge          ....    0
 Multiplicity           Mult            ....    1
 Number of Electrons    NEL             ....   16
 Basis Dimension        Dim             ....   48

ORBITAL ENERGIES
----------------

  NO   OCC          E(Eh)            E(eV)
   0   2.0000     -10.187066      -277.2041
   1   2.0000     -10.186376      -277.1854
   2   2.0000      -0.747885       -20.3510
   3   2.0000      -0.568728       -15.4759
   4   2.0000      -0.463263       -12.6060
   5   2.0000      -0.417991       -11.3741
   6   2.0000      -0.351485        -9.5644
   7   2.0000      -0.272541        -7.4162
   8   0.0000       0.008706         0.2369
   9   0.0000       0.085368         2.3230
  10   0.0000       0.104727         2.8498
  11   0.0000       0.116508         3.1703
  12   0.0000       0.187303         5.0968

MULLIKEN ATOMIC CHARGES
-----------------------
   0 H :    0.028056
   1 C :   -0.056344
   2 H :    0.028288
   3 C :   -0.056343
   4 H :    0.028288
   5 H :    0.028055
Sum of atomic charges:    0.0000000

LOEWDIN ATOMIC CHARGES
----------------------
   0 H :    0.024229
   1 C :   -0.048502
   2 H :    0.024273
   3 C :   -0.048502
   4 H :    0.024273
   5 H :    0.024229

  Mayer bond orders larger than 0.100000
B(  0-H ,  1-C ) :   0.9623 B(  1-C ,  2-H ) :   0.9623 B(  1-C ,  3-C ) :   2.0819
B(  3-C ,  4-H ) :   0.9623 B(  3-C ,  5-H ) :   0.9623

FINAL SINGLE POINT ENERGY       -78.473534497628

DIPOLE MOMENT
-------------
                                X             Y             Z
Electronic contribution:     -0.00000       0.00000       0.00001
Nuclear contribution   :      0.00000      -0.00000      -0.00001
                        -----------------------------------------
Total Dipole Moment    :     -0.00000       0.00000      -0.00000
                        -----------------------------------------
Magnitude (a.u.)       :      0.00000
Magnitude (Debye)      :      0.00000

VIBRATIONAL FREQUENCIES
-----------------------

Scaling factor for frequencies =  1.000000000  (already applied!)

   0:         0.00 cm**-1
   1:         0.00 cm**-1
   2:         0.00 cm**-1
   3:         0.00 cm**-1
   4:         0.00 cm**-1
   5:         0.00 cm**-1
   6:       822.85 cm**-1
   7:       963.67 cm**-1
   8:       970.62 cm**-1
   9:      1058.06 cm**-1
  10:      1220.52 cm**-1
  11:      1358.37 cm**-1
  12:      1442.79 cm**-1
  13:      1697.62 cm**-1
  14:      3120.31 cm**-1
  15:      3137.44 cm**-1
  16:      3207.76 cm**-1
  17:      3230.46 cm**-1

IR SPECTRUM
-----------

 Mode   freq       eps      Int      T**2         TX        TY        TZ
       cm**-1   L/(mol*cm) km/mol    a.u.
----------------------------------------------------------------------------
  6:    822.85   0.000147    0.74  0.000056  (-0.000690  0.000660  0.007394)
  7:    963.67   0.016254   82.14  0.005264  (-0.001141 -0.072302  0.005882)
  8:    970.62   0.000000    0.00  0.000000  (-0.000000 -0.000022  0.000002)
  9:   1058.06   0.000000    0.00  0.000000  (-0.000100 -0.000069  0.000003)
 10:   1220.52   0.000000    0.00  0.000000  ( 0.000001 -0.000000  0.000000)
 11:   1358.37   0.000000    0.00  0.000000  (-0.000000 -0.000000 -0.000000)
 12:   1442.79   0.001313    6.64  0.000284  ( 0.016772 -0.000109  0.001647)
 13:   1697.62   0.000000    0.00  0.000000  (-0.000000  0.000000  0.000000)
 14:   3120.31   0.002825   14.27  0.000283  ( 0.016735 -0.000104  0.001558)
 15:   3137.44   0.000000    0.00  0.000000  ( 0.000005  0.000000  0.000001)
 16:   3207.76   0.000000    0.00  0.000000  (-0.000000  0.000000  0.000005)
 17:   3230.46   0.004004   20.23  0.000387  (-0.001898  0.001578  0.019511)

--------------------------
THERMOCHEMISTRY AT 298.15K
--------------------------

Temperature         ... 298.15 K
Pressure            ... 1.00 atm
Total Mass          ... 28.05 AMU

Throughout the following assumptions are being made:
  (1) The electronic state is orbitally nondegenerate
  (2) There are no thermally accessible electronically excited states
  (3) Hindered rotations indicated by low frequency modes are not
      treated as such but are treated as vibrations and this may
      cause some error
  (4) All equations used are the standard statistical mechanics
      equations for an ideal gas
  (5) All vibrations are strictly harmonic

freq.     822.85  E(vib)   ...       0.05
freq.     963.67  E(vib)   ...       0.03
freq.     970.62  E(vib)   ...       0.03
freq.    1058.06  E(vib)   ...       0.02
freq.    1220.52  E(vib)   ...       0.01
freq.    1358.37  E(vib)   ...       0.01
freq.    1442.79  E(vib)   ...       0.00
freq.    1697.62  E(vib)   ...       0.00
freq.    3120.31  E(vib)   ...       0.00
freq.    3137.44  E(vib)   ...       0.00
freq.    3207.76  E(vib)   ...       0.00
freq.    3230.46  E(vib)   ...       0.00

------------
INNER ENERGY
------------

The inner energy is: U= E(el) + E(ZPE) + E(vib) + E(rot) + E(trans)
    E(el)   - is the total energy from the electronic structure calculation
              = E(kin-el) + E(nuc-el) + E(el-el) + E(nuc-nuc)
    E(ZPE)  - the the zero temperature vibrational energy from the frequency calculation
    E(vib)  - the the finite temperature correction to E(ZPE) due to population
              of excited vibrational states
    E(rot)  - is the rotational thermal energy
    E(trans)- is the translational thermal energy

Summary of contributions to the inner energy U:
Electronic energy                ...    -78.47353450 Eh
Zero point energy                ...      0.05064475 Eh      31.78 kcal/mol
Thermal vibrational correction   ...      0.00021775 Eh       0.14 kcal/mol
Thermal rotational correction    ...      0.00141627 Eh       0.89 kcal/mol
Thermal translational correction ...      0.00141627 Eh       0.89 kcal/mol
-----------------------------------------------------------------------
Total thermal energy                    -78.41983945 Eh

Summary of corrections to the electronic energy:
(perhaps to be used in another calculation)
Total thermal correction                  0.00305030 Eh       1.91 kcal/mol
Non-thermal (ZPE) correction              0.05064475 Eh      31.78 kcal/mol
-----------------------------------------------------------------------
Total correction                          0.05369505 Eh      33.69 kcal/mol

--------
ENTHALPY
--------

The enthalpy is H = U + kB*T
                kB is Boltzmann's constant
Total free energy                 ...    -78.41983945 Eh
Thermal Enthalpy correction       ...      0.00094421 Eh       0.59 kcal/mol
-----------------------------------------------------------------------
Total Enthalpy                    ...    -78.41889524 Eh

Note: Rotational entropy computed according to Herzberg
Infrared and Raman Spectra, Chapter V,1, Van Nostrand Reinhold, 1945
Point Group:  C2h, Symmetry Number:   2
Rotational constants in cm-1:     4.820893     0.997363     0.826395

Vibrational entropy computed according to the QRRHO of S. Grimme
Chem.Eur.J. 2012 18 9955

-------
ENTROPY
-------

The entropy contributions are T*S = T*(S(el)+S(vib)+S(rot)+S(trans))
     S(el)   - electronic entropy
     S(vib)  - vibrational entropy
     S(rot)  - rotational entropy
     S(trans)- translational entropy
The entropies will be listed as multiplied by the temperature to get
units of energy

Electronic entropy                ...      0.00000000 Eh      0.00 kcal/mol
Vibrational entropy               ...      0.00026456 Eh      0.17 kcal/mol
Rotational entropy                ...      0.00820504 Eh      5.15 kcal/mol
Translational entropy             ...      0.01707111 Eh     10.71 kcal/mol
-----------------------------------------------------------------------
Final entropy term                ...      0.02554071 Eh     16.03 kcal/mol

In case the symmetry of your molecule has not been determined correctly
or in case you have a reason to use a different symmetry number we print
out the resulting rotational entropy values for sn=1,12 :
 --------------------------------------------------------
|  sn= 1 | S(rot)=       0.00885950 Eh      5.56 kcal/mol|
|  sn= 2 | S(rot)=       0.00820504 Eh      5.15 kcal/mol|
|  sn= 3 | S(rot)=       0.00782221 Eh      4.91 kcal/mol|
|  sn= 4 | S(rot)=       0.00755058 Eh      4.74 kcal/mol|
|  sn= 5 | S(rot)=       0.00733990 Eh      4.61 kcal/mol|
|  sn= 6 | S(rot)=       0.00716775 Eh      4.50 kcal/mol|
|  sn= 7 | S(rot)=       0.00702221 Eh      4.41 kcal/mol|
|  sn= 8 | S(rot)=       0.00689613 Eh      4.33 kcal/mol|
|  sn= 9 | S(rot)=       0.00678492 Eh      4.26 kcal/mol|
|  sn=10 | S(rot)=       0.00668544 Eh      4.20 kcal/mol|
|  sn=11 | S(rot)=       0.00659545 Eh      4.14 kcal/mol|
|  sn=12 | S(rot)=       0.00651330 Eh      4.09 kcal/mol|
 --------------------------------------------------------

-------------------
GIBBS FREE ENERGY
-------------------

The Gibbs free energy is G = H - T*S

Total enthalpy                    ...    -78.41889524 Eh
Total entropy correction          ...     -0.02554071 Eh    -16.03 kcal/mol
-----------------------------------------------------------------------
Final Gibbs free energy         ...    -78.44443595 Eh

For completeness - the Gibbs free energy minus the electronic energy
G-E(el)                           ...      0.02909855 Eh     18.26 kcal/mol

                             ****ORCA TERMINATED NORMALLY****
TOTAL RUN TIME: 0 days 0 hours 0 minutes 19 seconds 885 msec
