                         Program Version 5.0.3 -  RELEASE  -
|  1> !HF 6-31G TightSCF Mulliken Loewdin Mayer ReducedPOP
|  2>
|  3> %scf
|  4>     Print[P_SCFMemInfo] 1
|  5>
|  6> end
|  7>
|  8> * xyz 0 1
|  9> H          0.63109       -0.02651        0.47485
| 10> O          0.14793        0.02998       -0.34219
| 11> H         -0.77901       -0.00348       -0.13266
| 12> *
| 13>
| 14>
| 15>
| 16>
| 17>
| 18>
| 19>
| 20>
| 21>
| 22>
| 23>
| 24>
| 25>
| 26>                          ****END OF INPUT****

CARTESIAN COORDINATES (ANGSTROEM)
---------------------------------
  H      0.631090   -0.026510    0.474850
  O      0.147930    0.029980   -0.342190
  H     -0.779010   -0.003480   -0.132660

 Total Charge           Charge          ....    0
 Multiplicity           Mult            ....    1
 Number of Electrons    NEL             ....   10
 Basis Dimension        Dim             ....   13

ORBITAL ENERGIES
----------------

  NO   OCC          E(Eh)            E(eV)
   0   2.0000     -20.556740      -559.3773
   1   2.0000      -1.356185       -36.9037
   2   2.0000      -0.719312       -19.5735
   3   2.0000      -0.555419       -15.1137
   4   2.0000      -0.500171       -13.6103
   5   0.0000       0.206015         5.6060
   6   0.0000       0.302066         8.2196
   7   0.0000       1.079217        29.3670
   8   0.0000       1.165660        31.7192
   9   0.0000       1.182825        32.1863

MULLIKEN ATOMIC CHARGES
-----------------------
   0 H :    0.399870
   1 O :   -0.799742
   2 H :    0.399872
Sum of atomic charges:    0.0000000

LOEWDIN ATOMIC CHARGES
----------------------
   0 H :    0.292342
   1 O :   -0.584690
   2 H :    0.292348

  Mayer bond orders larger than 0.100000
B(  0-H ,  1-O ) :   0.7987 B(  1-O ,  2-H ) :   0.7987

FINAL SINGLE POINT ENERGY       -75.984959964043

DIPOLE MOMENT
-------------
                                X             Y             Z
Electronic contribution:     -0.03086      -0.00626       0.07143
Nuclear contribution   :     -0.36939      -0.07487       0.85448
                        -----------------------------------------
Total Dipole Moment    :     -0.40025      -0.08113       0.92591
                        -----------------------------------------
Magnitude (a.u.)       :      1.01197
Magnitude (Debye)      :      2.57223

Rotational constants in cm-1:    29.917429    14.184894     9.622522
Rotational constants in MHz : 896901.955905 425252.430345 288475.945394

                             ****ORCA TERMINATED NORMALLY****
TOTAL RUN TIME: 0 days 0 hours 0 minutes 1 seconds 369 msec
