                         Program Version 5.0.4 -  RELEASE  -
|  1>
|  2>
|  3>
|  4> !HF STO-3G UseSym
|  5>
|  6> %output
|  7>    Print[P_Overlap] 1
|  8>    Print[P_OneElec] 1
|  9>    Print[P_Density] 1
| 10>    Print[P_Fockian] 1
| 11>    Print[P_Iter_F]  1
| 12>    Print[P_Iter_C]  1
| 13>    Print[P_S12]     1
| 14>    Print[P_GuessOrb]  1
| 15>    Print[P_MOs]  1
| 16>    Print[P_Iter_P]  1
| 17> end
| 18>
| 19> * xyz 0 1
| 20> H          0.63109       -0.02651        0.47485
| 21> O          0.14793        0.02998       -0.34219
| 22> H         -0.77901       -0.00348       -0.13266
| 23> *
| 24>
| 25>
| 26>
| 27>
| 28>                          ****END OF INPUT****

CARTESIAN COORDINATES (ANGSTROEM)
---------------------------------
  H      0.767786    0.000000    0.498219
  O      0.000000    0.000000   -0.062780
  H     -0.767786    0.000000    0.498219

 Total Charge           Charge          ....    0
 Multiplicity           Mult            ....    1
 Number of Electrons    NEL             ....   10
 Basis Dimension        Dim             ....    7

ORBITAL ENERGIES
----------------

  NO   OCC          E(Eh)            E(eV)    Irrep
   0   2.0000     -20.236332      -550.6586    1-A1
   1   2.0000      -1.267687       -34.4955    2-A1
   2   2.0000      -0.626260       -17.0414    1-B1
   3   2.0000      -0.446026       -12.1370    3-A1
   4   2.0000      -0.389138       -10.5890    1-B2
   5   0.0000       0.605899        16.4874    4-A1
   6   0.0000       0.759480        20.6665    2-B1
------------------
MOLECULAR ORBITALS
------------------
                      0         1         2         3         4         5
                 -20.23633  -1.26769  -0.62626  -0.44603  -0.38914   0.60590
                   2.00000   2.00000   2.00000   2.00000   2.00000   0.00000
                  --------  --------  --------  --------  --------  --------
  0H   1s        -0.006064 -0.159758 -0.442679  0.271614  0.000000 -0.805043
  1O   1s         0.994106  0.232795  0.000000  0.101396 -0.000000 -0.134705
  1O   2s         0.026739 -0.831831  0.000000 -0.528895 -0.000000  0.903047
  1O   1pz        0.004300 -0.128293  0.000000  0.788129 -0.000000  0.724744
  1O   1px       -0.000000  0.000000 -0.602434 -0.000000 -0.000000  0.000000
  1O   1py       -0.000000  0.000000 -0.000000  0.000000  1.000000 -0.000000
  2H   1s        -0.006064 -0.159758  0.442679  0.271614 -0.000000 -0.805043
                      6
                   0.75948
                   0.00000
                  --------
  0H   1s        -0.842578
  1O   1s        -0.000000
  1O   2s         0.000000
  1O   1pz        0.000000
  1O   1px        1.003417
  1O   1py       -0.000000
  2H   1s         0.842578

MULLIKEN ATOMIC CHARGES
-----------------------
   0 H :    0.188869
   1 O :   -0.377739
   2 H :    0.188869
Sum of atomic charges:    0.0000000

LOEWDIN ATOMIC CHARGES
----------------------
   0 H :    0.130432
   1 O :   -0.260865
   2 H :    0.130432

  Mayer bond orders larger than 0.100000
B(  0-H ,  1-O ) :   0.9494 B(  1-O ,  2-H ) :   0.9494

FINAL SINGLE POINT ENERGY       -74.960558600333

DIPOLE MOMENT
-------------
                                X             Y             Z
Electronic contribution:      0.00000       0.00000      -0.26017
Nuclear contribution   :      0.00000       0.00000       0.93391
                        -----------------------------------------
Total Dipole Moment    :      0.00000       0.00000       0.67373
                        -----------------------------------------
Magnitude (a.u.)       :      0.67373
Magnitude (Debye)      :      1.71249

Rotational constants in cm-1:    29.917429    14.184894     9.622522
Rotational constants in MHz : 896901.954974 425252.430691 288475.945456

                             ****ORCA TERMINATED NORMALLY****
TOTAL RUN TIME: 0 days 0 hours 0 minutes 2 seconds 412 msec
